<?xml version="1.0" encoding="UTF-8"?>

<!-- generated on 2022-01-07 10:25:19 by Eclipse SUMO GUI Version 1.11.0
<configuration xmlns:xsi="http://www.w3.org/2001/XMLSchema-instance" xsi:noNamespaceSchemaLocation="http://sumo.dlr.de/xsd/sumoConfiguration.xsd">

    <input>
        <net-file value="/home/micrl/Downloads/CS_DEMO/CSeditClean_1.net.xml"/>
        <route-files value="/home/micrl/Downloads/CS_DEMO/newroute1220_start0.xml"/>
        <additional-files value="/home/micrl/Downloads/CS_DEMO/tllogic.add.xml"/>
    </input>

    <output>
        <netstate-dump value="/home/micrl/Downloads/CS_DEMO/rawdump.xml"/>
    </output>

    <processing>
        <ignore-route-errors value="true"/>
    </processing>

    <report>
        <verbose value="true"/>
        <duration-log.statistics value="true"/>
        <no-step-log value="true"/>
    </report>

    <gui_only>
        <gui-settings-file value="/home/micrl/Downloads/CS_DEMO/osm.view.xml"/>
    </gui_only>

</configuration>
-->

<detector xmlns:xsi="http://www.w3.org/2001/XMLSchema-instance" xsi:noNamespaceSchemaLocation="http://sumo.dlr.de/xsd/det_e1_file.xsd">
    <interval begin="0.00" end="300.00" id="TLS332_1_InductLoopOn_36870636#12_0" nVehContrib="1" flow="12.00" occupancy="0.15" speed="11.15" harmonicMeanSpeed="11.15" length="5.00" nVehEntered="1"/>
    <interval begin="0.00" end="300.00" id="TLS332_1_InductLoopOn_36870636#12_1" nVehContrib="17" flow="204.00" occupancy="6.18" speed="9.59" harmonicMeanSpeed="4.84" length="5.00" nVehEntered="19"/>
    <interval begin="0.00" end="300.00" id="TLS332_1_InductLoopOn_36870636#12_2" nVehContrib="2" flow="24.00" occupancy="1.03" speed="3.24" harmonicMeanSpeed="3.23" length="5.00" nVehEntered="2"/>
    <interval begin="0.00" end="300.00" id="TLS332_1_InductLoopOn_36870636#12_3" nVehContrib="12" flow="144.00" occupancy="2.64" speed="9.88" harmonicMeanSpeed="9.35" length="5.00" nVehEntered="18"/>
    <interval begin="0.00" end="300.00" id="TLS332_1_InductLoopOn_36870636#12_4" nVehContrib="7" flow="84.00" occupancy="3.08" speed="4.03" harmonicMeanSpeed="3.79" length="5.00" nVehEntered="7"/>
    <interval begin="0.00" end="300.00" id="TLS332_1_InductLoopOn_229489602#4_0" nVehContrib="22" flow="264.00" occupancy="2.33" speed="16.64" harmonicMeanSpeed="16.14" length="5.00" nVehEntered="23"/>
    <interval begin="0.00" end="300.00" id="TLS332_1_InductLoopOn_229489602#4_1" nVehContrib="30" flow="360.00" occupancy="3.64" speed="15.00" harmonicMeanSpeed="13.75" length="5.00" nVehEntered="30"/>
    <interval begin="0.00" end="300.00" id="TLS332_1_InductLoopOn_229489602#4_2" nVehContrib="35" flow="420.00" occupancy="4.66" speed="14.44" harmonicMeanSpeed="12.52" length="5.00" nVehEntered="35"/>
    <interval begin="0.00" end="300.00" id="TLS332_1_InductLoopOn_229489602#4_3" nVehContrib="2" flow="24.00" occupancy="0.24" speed="14.04" harmonicMeanSpeed="14.02" length="5.00" nVehEntered="2"/>
    <interval begin="0.00" end="300.00" id="TLS332_1_InductLoopOn_229489602#4_4" nVehContrib="1" flow="12.00" occupancy="0.14" speed="12.30" harmonicMeanSpeed="12.30" length="5.00" nVehEntered="1"/>
    <interval begin="0.00" end="300.00" id="TLS332_1_InductLoopOn_36870615#1_0" nVehContrib="12" flow="144.00" occupancy="11.89" speed="8.40" harmonicMeanSpeed="1.69" length="5.00" nVehEntered="13"/>
    <interval begin="0.00" end="300.00" id="TLS332_1_InductLoopOn_36870615#1_1" nVehContrib="8" flow="96.00" occupancy="8.93" speed="8.15" harmonicMeanSpeed="1.49" length="5.00" nVehEntered="8"/>
    <interval begin="0.00" end="300.00" id="TLS332_1_InductLoopOn_36870615#1_2" nVehContrib="12" flow="144.00" occupancy="21.52" speed="8.12" harmonicMeanSpeed="1.69" length="5.00" nVehEntered="13"/>
    <interval begin="0.00" end="300.00" id="TLS332_1_InductLoopOn_877763351#0_0" nVehContrib="22" flow="264.00" occupancy="5.77" speed="16.14" harmonicMeanSpeed="6.35" length="5.00" nVehEntered="22"/>
    <interval begin="0.00" end="300.00" id="TLS332_1_InductLoopOn_877763351#0_1" nVehContrib="20" flow="240.00" occupancy="6.72" speed="14.95" harmonicMeanSpeed="4.96" length="5.00" nVehEntered="20"/>
    <interval begin="0.00" end="300.00" id="TLS332_1_InductLoopOn_877763351#0_2" nVehContrib="13" flow="156.00" occupancy="3.82" speed="13.84" harmonicMeanSpeed="5.68" length="5.00" nVehEntered="13"/>
    <interval begin="0.00" end="300.00" id="TLS332_1_InductLoopOn_877763351#0_3" nVehContrib="0" flow="0.00" occupancy="0.00" speed="-1.00" harmonicMeanSpeed="-1.00" length="-1.00" nVehEntered="0"/>
    <interval begin="0.00" end="300.00" id="TLS332_1_InductLoopOn_877763351#0_4" nVehContrib="0" flow="0.00" occupancy="0.00" speed="-1.00" harmonicMeanSpeed="-1.00" length="-1.00" nVehEntered="0"/>
    <interval begin="0.00" end="300.00" id="TLS334_1_InductLoopOn_37552734#6.62_0" nVehContrib="9" flow="108.00" occupancy="1.31" speed="11.65" harmonicMeanSpeed="11.49" length="5.00" nVehEntered="9"/>
    <interval begin="0.00" end="300.00" id="TLS334_1_InductLoopOn_37552734#6.62_1" nVehContrib="0" flow="0.00" occupancy="0.00" speed="-1.00" harmonicMeanSpeed="-1.00" length="-1.00" nVehEntered="0"/>
    <interval begin="0.00" end="300.00" id="TLS334_1_InductLoopOn_37552734#6.62_2" nVehContrib="0" flow="0.00" occupancy="0.00" speed="-1.00" harmonicMeanSpeed="-1.00" length="-1.00" nVehEntered="0"/>
    <interval begin="0.00" end="300.00" id="TLS334_1_InductLoopOn_229489781#11_0" nVehContrib="19" flow="228.00" occupancy="1.89" speed="17.91" harmonicMeanSpeed="16.78" length="5.00" nVehEntered="19"/>
    <interval begin="0.00" end="300.00" id="TLS334_1_InductLoopOn_229489781#11_1" nVehContrib="41" flow="492.00" occupancy="5.20" speed="15.38" harmonicMeanSpeed="13.17" length="5.00" nVehEntered="42"/>
    <interval begin="0.00" end="300.00" id="TLS334_1_InductLoopOn_229489781#11_2" nVehContrib="22" flow="264.00" occupancy="3.66" speed="15.99" harmonicMeanSpeed="10.03" length="5.00" nVehEntered="22"/>
    <interval begin="0.00" end="300.00" id="TLS334_1_InductLoopOn_229489781#11_3" nVehContrib="1" flow="12.00" occupancy="0.14" speed="11.75" harmonicMeanSpeed="11.75" length="5.00" nVehEntered="1"/>
    <interval begin="0.00" end="300.00" id="TLS334_1_InductLoopOn_229489781#11_4" nVehContrib="0" flow="0.00" occupancy="0.00" speed="-1.00" harmonicMeanSpeed="-1.00" length="-1.00" nVehEntered="0"/>
    <interval begin="0.00" end="300.00" id="TLS334_1_InductLoopOn_436475433#2_0" nVehContrib="16" flow="192.00" occupancy="4.68" speed="10.40" harmonicMeanSpeed="8.43" length="5.00" nVehEntered="19"/>
    <interval begin="0.00" end="300.00" id="TLS334_1_InductLoopOn_436475433#2_1" nVehContrib="6" flow="72.00" occupancy="1.85" speed="6.48" harmonicMeanSpeed="5.42" length="5.00" nVehEntered="6"/>
    <interval begin="0.00" end="300.00" id="TLS334_1_InductLoopOn_436475433#2_2" nVehContrib="17" flow="204.00" occupancy="53.07" speed="5.56" harmonicMeanSpeed="0.53" length="5.00" nVehEntered="17"/>
    <interval begin="0.00" end="300.00" id="TLS334_1_InductLoopOn_229489595#4_0" nVehContrib="14" flow="168.00" occupancy="1.16" speed="20.68" harmonicMeanSpeed="20.03" length="5.00" nVehEntered="14"/>
    <interval begin="0.00" end="300.00" id="TLS334_1_InductLoopOn_229489595#4_1" nVehContrib="15" flow="180.00" occupancy="1.25" speed="20.35" harmonicMeanSpeed="20.02" length="5.00" nVehEntered="15"/>
    <interval begin="0.00" end="300.00" id="TLS334_1_InductLoopOn_229489595#4_2" nVehContrib="20" flow="240.00" occupancy="1.85" speed="19.28" harmonicMeanSpeed="18.04" length="5.00" nVehEntered="20"/>
    <interval begin="0.00" end="300.00" id="TLS334_1_InductLoopOn_229489595#4_3" nVehContrib="0" flow="0.00" occupancy="0.00" speed="-1.00" harmonicMeanSpeed="-1.00" length="-1.00" nVehEntered="0"/>
    <interval begin="0.00" end="300.00" id="TLS334_1_InductLoopOn_229489595#4_4" nVehContrib="0" flow="0.00" occupancy="0.00" speed="-1.00" harmonicMeanSpeed="-1.00" length="-1.00" nVehEntered="0"/>
    <interval begin="0.00" end="300.00" id="TLS229_1_InductLoopOn_229357869#5_0" nVehContrib="16" flow="192.00" occupancy="23.75" speed="6.75" harmonicMeanSpeed="1.13" length="5.00" nVehEntered="17"/>
    <interval begin="0.00" end="300.00" id="TLS229_1_InductLoopOn_229357869#5_1" nVehContrib="14" flow="168.00" occupancy="11.59" speed="7.99" harmonicMeanSpeed="2.07" length="5.00" nVehEntered="15"/>
    <interval begin="0.00" end="300.00" id="TLS229_1_InductLoopOn_229357869#5_2" nVehContrib="14" flow="168.00" occupancy="31.82" speed="7.51" harmonicMeanSpeed="1.06" length="5.00" nVehEntered="16"/>
    <interval begin="0.00" end="300.00" id="TLS229_1_InductLoopOn_229357869#5_3" nVehContrib="10" flow="120.00" occupancy="24.86" speed="5.74" harmonicMeanSpeed="0.89" length="5.00" nVehEntered="11"/>
    <interval begin="0.00" end="300.00" id="TLS229_1_InductLoopOn_978613913#0_0" nVehContrib="16" flow="192.00" occupancy="1.68" speed="17.81" harmonicMeanSpeed="16.28" length="5.00" nVehEntered="18"/>
    <interval begin="0.00" end="300.00" id="TLS229_1_InductLoopOn_978613913#0_1" nVehContrib="11" flow="132.00" occupancy="1.83" speed="13.66" harmonicMeanSpeed="9.99" length="5.00" nVehEntered="11"/>
    <interval begin="0.00" end="300.00" id="TLS229_1_InductLoopOn_978613913#0_2" nVehContrib="9" flow="108.00" occupancy="0.83" speed="18.77" harmonicMeanSpeed="18.16" length="5.00" nVehEntered="9"/>
    <interval begin="0.00" end="300.00" id="TLS229_1_InductLoopOn_978613913#0_3" nVehContrib="0" flow="0.00" occupancy="0.00" speed="-1.00" harmonicMeanSpeed="-1.00" length="-1.00" nVehEntered="0"/>
    <interval begin="0.00" end="300.00" id="TLS229_1_InductLoopOn_978613913#0_4" nVehContrib="0" flow="0.00" occupancy="0.00" speed="-1.00" harmonicMeanSpeed="-1.00" length="-1.00" nVehEntered="0"/>
    <interval begin="0.00" end="300.00" id="TLS229_1_InductLoopOn_gneE41_1" nVehContrib="26" flow="312.00" occupancy="8.10" speed="8.92" harmonicMeanSpeed="5.35" length="5.00" nVehEntered="26"/>
    <interval begin="0.00" end="300.00" id="TLS229_1_InductLoopOn_gneE41_2" nVehContrib="15" flow="180.00" occupancy="4.98" speed="9.03" harmonicMeanSpeed="5.50" length="5.00" nVehEntered="19"/>
    <interval begin="0.00" end="300.00" id="TLS229_1_InductLoopOn_gneE41_3" nVehContrib="11" flow="132.00" occupancy="3.33" speed="7.45" harmonicMeanSpeed="5.50" length="5.00" nVehEntered="11"/>
    <interval begin="0.00" end="300.00" id="TLS229_1_InductLoopOn_gneE41_4" nVehContrib="0" flow="0.00" occupancy="0.00" speed="-1.00" harmonicMeanSpeed="-1.00" length="-1.00" nVehEntered="0"/>
    <interval begin="0.00" end="300.00" id="TLS229_1_InductLoopOn_gneE41_5" nVehContrib="8" flow="96.00" occupancy="1.35" speed="10.59" harmonicMeanSpeed="9.89" length="5.00" nVehEntered="8"/>
    <interval begin="0.00" end="300.00" id="TLS229_1_InductLoopOn_gneE41_6" nVehContrib="2" flow="24.00" occupancy="0.30" speed="11.53" harmonicMeanSpeed="11.25" length="5.00" nVehEntered="2"/>
    <interval begin="0.00" end="300.00" id="TLS229_1_InductLoopOn_978613907#0_0" nVehContrib="2" flow="24.00" occupancy="0.31" speed="10.61" harmonicMeanSpeed="10.61" length="5.00" nVehEntered="2"/>
    <interval begin="0.00" end="300.00" id="TLS229_1_InductLoopOn_978613907#0_1" nVehContrib="17" flow="204.00" occupancy="1.74" speed="16.70" harmonicMeanSpeed="16.25" length="5.00" nVehEntered="17"/>
    <interval begin="0.00" end="300.00" id="TLS229_1_InductLoopOn_978613907#0_2" nVehContrib="34" flow="408.00" occupancy="5.81" speed="14.76" harmonicMeanSpeed="9.85" length="5.00" nVehEntered="35"/>
    <interval begin="0.00" end="300.00" id="TLS229_1_InductLoopOn_978613907#0_3" nVehContrib="28" flow="336.00" occupancy="7.60" speed="13.48" harmonicMeanSpeed="6.98" length="5.00" nVehEntered="29"/>
    <interval begin="0.00" end="300.00" id="TLS229_1_InductLoopOn_978613907#0_4" nVehContrib="2" flow="24.00" occupancy="0.30" speed="10.98" harmonicMeanSpeed="10.97" length="5.00" nVehEntered="2"/>
    <interval begin="0.00" end="300.00" id="TLS229_1_InductLoopOn_978613907#0_5" nVehContrib="0" flow="0.00" occupancy="0.00" speed="-1.00" harmonicMeanSpeed="-1.00" length="-1.00" nVehEntered="0"/>
    <interval begin="0.00" end="300.00" id="TLS499_1_InductLoopOn_877763350#5_0" nVehContrib="8" flow="96.00" occupancy="1.87" speed="8.96" harmonicMeanSpeed="7.13" length="5.00" nVehEntered="8"/>
    <interval begin="0.00" end="300.00" id="TLS499_1_InductLoopOn_877763350#5_1" nVehContrib="8" flow="96.00" occupancy="4.14" speed="7.31" harmonicMeanSpeed="3.98" length="5.00" nVehEntered="9"/>
    <interval begin="0.00" end="300.00" id="TLS499_1_InductLoopOn_877763350#5_2" nVehContrib="13" flow="156.00" occupancy="19.04" speed="8.80" harmonicMeanSpeed="1.35" length="5.00" nVehEntered="15"/>
    <interval begin="0.00" end="300.00" id="TLS499_1_InductLoopOn_877763350#5_3" nVehContrib="12" flow="144.00" occupancy="20.97" speed="6.23" harmonicMeanSpeed="0.97" length="5.00" nVehEntered="14"/>
    <interval begin="0.00" end="300.00" id="TLS499_1_InductLoopOn_877763350#5_4" nVehContrib="12" flow="144.00" occupancy="34.89" speed="6.05" harmonicMeanSpeed="0.59" length="5.00" nVehEntered="13"/>
    <interval begin="0.00" end="300.00" id="TLS499_1_InductLoopOn_877763364#0_3" nVehContrib="1" flow="12.00" occupancy="0.16" speed="10.62" harmonicMeanSpeed="10.62" length="5.00" nVehEntered="1"/>
    <interval begin="0.00" end="300.00" id="TLS499_1_InductLoopOn_877763364#0_4" nVehContrib="1" flow="12.00" occupancy="0.16" speed="10.20" harmonicMeanSpeed="10.20" length="5.00" nVehEntered="1"/>
    <interval begin="0.00" end="300.00" id="TLS499_1_InductLoopOn_877763365#6_0" nVehContrib="6" flow="72.00" occupancy="1.59" speed="8.90" harmonicMeanSpeed="8.02" length="5.00" nVehEntered="8"/>
    <interval begin="0.00" end="300.00" id="TLS499_1_InductLoopOn_877763365#6_1" nVehContrib="12" flow="144.00" occupancy="6.74" speed="7.52" harmonicMeanSpeed="2.97" length="5.00" nVehEntered="12"/>
    <interval begin="0.00" end="300.00" id="TLS499_1_InductLoopOn_877763365#6_2" nVehContrib="4" flow="48.00" occupancy="0.77" speed="8.84" harmonicMeanSpeed="8.66" length="5.00" nVehEntered="4"/>
    <interval begin="0.00" end="300.00" id="TLS499_1_InductLoopOn_877763365#6_3" nVehContrib="16" flow="192.00" occupancy="42.89" speed="6.22" harmonicMeanSpeed="0.62" length="5.00" nVehEntered="16"/>
    <interval begin="0.00" end="300.00" id="TLS499_1_InductLoopOn_978615349#0_3" nVehContrib="2" flow="24.00" occupancy="0.33" speed="10.05" harmonicMeanSpeed="10.04" length="5.00" nVehEntered="2"/>
    <interval begin="0.00" end="300.00" id="TLS499_1_InductLoopOn_978615349#0_4" nVehContrib="0" flow="0.00" occupancy="0.00" speed="-1.00" harmonicMeanSpeed="-1.00" length="-1.00" nVehEntered="0"/>
    <interval begin="0.00" end="300.00" id="TLS140_1_InductLoopOn_877763358#3_1" nVehContrib="11" flow="132.00" occupancy="1.72" speed="10.80" harmonicMeanSpeed="10.67" length="5.00" nVehEntered="11"/>
    <interval begin="0.00" end="300.00" id="TLS140_1_InductLoopOn_877763358#3_2" nVehContrib="4" flow="48.00" occupancy="8.01" speed="2.18" harmonicMeanSpeed="0.83" length="5.00" nVehEntered="4"/>
    <interval begin="0.00" end="300.00" id="TLS140_1_InductLoopOn_877763358#3_3" nVehContrib="16" flow="192.00" occupancy="21.62" speed="8.95" harmonicMeanSpeed="1.28" length="5.00" nVehEntered="18"/>
    <interval begin="0.00" end="300.00" id="TLS140_1_InductLoopOn_877763358#3_4" nVehContrib="26" flow="312.00" occupancy="36.49" speed="9.50" harmonicMeanSpeed="1.23" length="5.00" nVehEntered="28"/>
    <interval begin="0.00" end="300.00" id="TLS140_1_InductLoopOn_877763358#3_5" nVehContrib="8" flow="96.00" occupancy="13.14" speed="5.62" harmonicMeanSpeed="1.02" length="5.00" nVehEntered="9"/>
    <interval begin="0.00" end="300.00" id="TLS140_1_InductLoopOn_877763358#3_6" nVehContrib="9" flow="108.00" occupancy="12.52" speed="6.84" harmonicMeanSpeed="1.36" length="5.00" nVehEntered="11"/>
    <interval begin="0.00" end="300.00" id="TLS140_1_InductLoopOn_36978229#6_1" nVehContrib="10" flow="120.00" occupancy="1.68" speed="10.37" harmonicMeanSpeed="9.93" length="5.00" nVehEntered="10"/>
    <interval begin="0.00" end="300.00" id="TLS140_1_InductLoopOn_36978229#6_2" nVehContrib="17" flow="204.00" occupancy="41.48" speed="9.06" harmonicMeanSpeed="0.98" length="5.00" nVehEntered="20"/>
    <interval begin="0.00" end="300.00" id="TLS140_1_InductLoopOn_36978229#6_3" nVehContrib="19" flow="228.00" occupancy="33.06" speed="6.80" harmonicMeanSpeed="1.17" length="5.00" nVehEntered="20"/>
    <interval begin="0.00" end="300.00" id="TLS140_1_InductLoopOn_36978229#6_4" nVehContrib="21" flow="252.00" occupancy="45.65" speed="7.85" harmonicMeanSpeed="1.02" length="5.00" nVehEntered="23"/>
    <interval begin="0.00" end="300.00" id="TLS140_1_InductLoopOn_36978229#6_5" nVehContrib="5" flow="60.00" occupancy="0.91" speed="9.81" harmonicMeanSpeed="9.15" length="5.00" nVehEntered="5"/>
    <interval begin="0.00" end="300.00" id="TLS140_1_InductLoopOn_36978229#6_6" nVehContrib="8" flow="96.00" occupancy="9.70" speed="7.68" harmonicMeanSpeed="1.37" length="5.00" nVehEntered="8"/>
    <interval begin="0.00" end="300.00" id="TLS140_1_InductLoopOn_847825694#3_1" nVehContrib="7" flow="84.00" occupancy="1.05" speed="11.14" harmonicMeanSpeed="11.11" length="5.00" nVehEntered="7"/>
    <interval begin="0.00" end="300.00" id="TLS140_1_InductLoopOn_847825694#3_2" nVehContrib="2" flow="24.00" occupancy="1.46" speed="2.29" harmonicMeanSpeed="2.29" length="5.00" nVehEntered="2"/>
    <interval begin="0.00" end="300.00" id="TLS140_1_InductLoopOn_847825694#3_3" nVehContrib="23" flow="276.00" occupancy="23.65" speed="7.97" harmonicMeanSpeed="2.73" length="5.00" nVehEntered="25"/>
    <interval begin="0.00" end="300.00" id="TLS140_1_InductLoopOn_847825694#3_4" nVehContrib="28" flow="336.00" occupancy="41.43" speed="10.19" harmonicMeanSpeed="1.16" length="5.00" nVehEntered="29"/>
    <interval begin="0.00" end="300.00" id="TLS140_1_InductLoopOn_847825694#3_5" nVehContrib="15" flow="180.00" occupancy="32.36" speed="7.79" harmonicMeanSpeed="1.02" length="5.00" nVehEntered="16"/>
    <interval begin="0.00" end="300.00" id="TLS140_1_InductLoopOn_847825694#3_6" nVehContrib="12" flow="144.00" occupancy="45.14" speed="6.82" harmonicMeanSpeed="0.61" length="5.00" nVehEntered="14"/>
    <interval begin="0.00" end="300.00" id="TLS140_1_InductLoopOn_878066815#5_1" nVehContrib="7" flow="84.00" occupancy="1.19" speed="10.04" harmonicMeanSpeed="9.84" length="5.00" nVehEntered="7"/>
    <interval begin="0.00" end="300.00" id="TLS140_1_InductLoopOn_878066815#5_2" nVehContrib="11" flow="132.00" occupancy="14.40" speed="8.98" harmonicMeanSpeed="1.28" length="5.00" nVehEntered="12"/>
    <interval begin="0.00" end="300.00" id="TLS140_1_InductLoopOn_878066815#5_3" nVehContrib="11" flow="132.00" occupancy="14.95" speed="8.18" harmonicMeanSpeed="1.23" length="5.00" nVehEntered="12"/>
    <interval begin="0.00" end="300.00" id="TLS140_1_InductLoopOn_878066815#5_4" nVehContrib="13" flow="156.00" occupancy="15.09" speed="7.77" harmonicMeanSpeed="1.95" length="5.00" nVehEntered="14"/>
    <interval begin="0.00" end="300.00" id="TLS140_1_InductLoopOn_878066815#5_5" nVehContrib="8" flow="96.00" occupancy="1.64" speed="11.49" harmonicMeanSpeed="10.67" length="5.00" nVehEntered="9"/>
    <interval begin="0.00" end="300.00" id="TLS140_1_InductLoopOn_878066815#5_6" nVehContrib="3" flow="36.00" occupancy="0.81" speed="9.80" harmonicMeanSpeed="6.19" length="5.00" nVehEntered="3"/>
    <interval begin="300.00" end="600.00" id="TLS332_1_InductLoopOn_36870636#12_0" nVehContrib="0" flow="0.00" occupancy="0.00" speed="-1.00" harmonicMeanSpeed="-1.00" length="-1.00" nVehEntered="0"/>
    <interval begin="300.00" end="600.00" id="TLS332_1_InductLoopOn_36870636#12_1" nVehContrib="15" flow="180.00" occupancy="3.31" speed="9.81" harmonicMeanSpeed="8.12" length="5.00" nVehEntered="16"/>
    <interval begin="300.00" end="600.00" id="TLS332_1_InductLoopOn_36870636#12_2" nVehContrib="2" flow="24.00" occupancy="0.71" speed="5.16" harmonicMeanSpeed="4.68" length="5.00" nVehEntered="2"/>
    <interval begin="300.00" end="600.00" id="TLS332_1_InductLoopOn_36870636#12_3" nVehContrib="17" flow="204.00" occupancy="23.38" speed="7.60" harmonicMeanSpeed="1.23" length="5.00" nVehEntered="19"/>
    <interval begin="300.00" end="600.00" id="TLS332_1_InductLoopOn_36870636#12_4" nVehContrib="3" flow="36.00" occupancy="1.02" speed="5.76" harmonicMeanSpeed="4.89" length="5.00" nVehEntered="3"/>
    <interval begin="300.00" end="600.00" id="TLS332_1_InductLoopOn_229489602#4_0" nVehContrib="26" flow="312.00" occupancy="2.41" speed="18.52" harmonicMeanSpeed="17.99" length="5.00" nVehEntered="26"/>
    <interval begin="300.00" end="600.00" id="TLS332_1_InductLoopOn_229489602#4_1" nVehContrib="37" flow="444.00" occupancy="3.89" speed="17.03" harmonicMeanSpeed="16.15" length="5.00" nVehEntered="38"/>
    <interval begin="300.00" end="600.00" id="TLS332_1_InductLoopOn_229489602#4_2" nVehContrib="46" flow="552.00" occupancy="6.30" speed="15.07" harmonicMeanSpeed="12.18" length="5.00" nVehEntered="46"/>
    <interval begin="300.00" end="600.00" id="TLS332_1_InductLoopOn_229489602#4_3" nVehContrib="5" flow="60.00" occupancy="0.70" speed="12.86" harmonicMeanSpeed="12.71" length="5.00" nVehEntered="6"/>
    <interval begin="300.00" end="600.00" id="TLS332_1_InductLoopOn_229489602#4_4" nVehContrib="1" flow="12.00" occupancy="0.42" speed="3.95" harmonicMeanSpeed="3.95" length="5.00" nVehEntered="1"/>
    <interval begin="300.00" end="600.00" id="TLS332_1_InductLoopOn_36870615#1_0" nVehContrib="13" flow="156.00" occupancy="18.32" speed="8.83" harmonicMeanSpeed="1.33" length="5.00" nVehEntered="16"/>
    <interval begin="300.00" end="600.00" id="TLS332_1_InductLoopOn_36870615#1_1" nVehContrib="8" flow="96.00" occupancy="6.47" speed="5.80" harmonicMeanSpeed="2.06" length="5.00" nVehEntered="8"/>
    <interval begin="300.00" end="600.00" id="TLS332_1_InductLoopOn_36870615#1_2" nVehContrib="15" flow="180.00" occupancy="34.10" speed="6.11" harmonicMeanSpeed="0.57" length="5.00" nVehEntered="14"/>
    <interval begin="300.00" end="600.00" id="TLS332_1_InductLoopOn_877763351#0_0" nVehContrib="55" flow="660.00" occupancy="26.51" speed="12.11" harmonicMeanSpeed="3.46" length="5.00" nVehEntered="55"/>
    <interval begin="300.00" end="600.00" id="TLS332_1_InductLoopOn_877763351#0_1" nVehContrib="66" flow="792.00" occupancy="29.69" speed="13.07" harmonicMeanSpeed="3.71" length="5.00" nVehEntered="66"/>
    <interval begin="300.00" end="600.00" id="TLS332_1_InductLoopOn_877763351#0_2" nVehContrib="55" flow="660.00" occupancy="28.40" speed="11.96" harmonicMeanSpeed="3.23" length="5.00" nVehEntered="55"/>
    <interval begin="300.00" end="600.00" id="TLS332_1_InductLoopOn_877763351#0_3" nVehContrib="3" flow="36.00" occupancy="0.33" speed="15.30" harmonicMeanSpeed="15.11" length="5.00" nVehEntered="3"/>
    <interval begin="300.00" end="600.00" id="TLS332_1_InductLoopOn_877763351#0_4" nVehContrib="0" flow="0.00" occupancy="0.00" speed="-1.00" harmonicMeanSpeed="-1.00" length="-1.00" nVehEntered="0"/>
    <interval begin="300.00" end="600.00" id="TLS334_1_InductLoopOn_37552734#6.62_0" nVehContrib="10" flow="120.00" occupancy="1.51" speed="11.38" harmonicMeanSpeed="11.03" length="5.00" nVehEntered="10"/>
    <interval begin="300.00" end="600.00" id="TLS334_1_InductLoopOn_37552734#6.62_1" nVehContrib="0" flow="0.00" occupancy="0.00" speed="-1.00" harmonicMeanSpeed="-1.00" length="-1.00" nVehEntered="0"/>
    <interval begin="300.00" end="600.00" id="TLS334_1_InductLoopOn_37552734#6.62_2" nVehContrib="0" flow="0.00" occupancy="0.00" speed="-1.00" harmonicMeanSpeed="-1.00" length="-1.00" nVehEntered="0"/>
    <interval begin="300.00" end="600.00" id="TLS334_1_InductLoopOn_229489781#11_0" nVehContrib="18" flow="216.00" occupancy="1.47" speed="20.75" harmonicMeanSpeed="20.36" length="5.00" nVehEntered="18"/>
    <interval begin="300.00" end="600.00" id="TLS334_1_InductLoopOn_229489781#11_1" nVehContrib="40" flow="480.00" occupancy="10.46" speed="13.09" harmonicMeanSpeed="6.37" length="5.00" nVehEntered="40"/>
    <interval begin="300.00" end="600.00" id="TLS334_1_InductLoopOn_229489781#11_2" nVehContrib="38" flow="456.00" occupancy="6.72" speed="15.39" harmonicMeanSpeed="9.42" length="5.00" nVehEntered="38"/>
    <interval begin="300.00" end="600.00" id="TLS334_1_InductLoopOn_229489781#11_3" nVehContrib="2" flow="24.00" occupancy="0.31" speed="10.71" harmonicMeanSpeed="10.69" length="5.00" nVehEntered="2"/>
    <interval begin="300.00" end="600.00" id="TLS334_1_InductLoopOn_229489781#11_4" nVehContrib="0" flow="0.00" occupancy="0.00" speed="-1.00" harmonicMeanSpeed="-1.00" length="-1.00" nVehEntered="0"/>
    <interval begin="300.00" end="600.00" id="TLS334_1_InductLoopOn_436475433#2_0" nVehContrib="15" flow="180.00" occupancy="20.40" speed="8.90" harmonicMeanSpeed="1.26" length="5.00" nVehEntered="20"/>
    <interval begin="300.00" end="600.00" id="TLS334_1_InductLoopOn_436475433#2_1" nVehContrib="7" flow="84.00" occupancy="12.26" speed="2.73" harmonicMeanSpeed="0.95" length="5.00" nVehEntered="7"/>
    <interval begin="300.00" end="600.00" id="TLS334_1_InductLoopOn_436475433#2_2" nVehContrib="15" flow="180.00" occupancy="88.59" speed="5.63" harmonicMeanSpeed="0.30" length="5.00" nVehEntered="16"/>
    <interval begin="300.00" end="600.00" id="TLS334_1_InductLoopOn_229489595#4_0" nVehContrib="33" flow="396.00" occupancy="3.97" speed="15.30" harmonicMeanSpeed="14.13" length="5.00" nVehEntered="34"/>
    <interval begin="300.00" end="600.00" id="TLS334_1_InductLoopOn_229489595#4_1" nVehContrib="67" flow="804.00" occupancy="11.20" speed="14.10" harmonicMeanSpeed="10.01" length="5.00" nVehEntered="68"/>
    <interval begin="300.00" end="600.00" id="TLS334_1_InductLoopOn_229489595#4_2" nVehContrib="87" flow="1044.00" occupancy="18.27" speed="13.53" harmonicMeanSpeed="7.94" length="5.00" nVehEntered="87"/>
    <interval begin="300.00" end="600.00" id="TLS334_1_InductLoopOn_229489595#4_3" nVehContrib="2" flow="24.00" occupancy="0.23" speed="15.10" harmonicMeanSpeed="14.52" length="5.00" nVehEntered="2"/>
    <interval begin="300.00" end="600.00" id="TLS334_1_InductLoopOn_229489595#4_4" nVehContrib="0" flow="0.00" occupancy="0.00" speed="-1.00" harmonicMeanSpeed="-1.00" length="-1.00" nVehEntered="0"/>
    <interval begin="300.00" end="600.00" id="TLS229_1_InductLoopOn_229357869#5_0" nVehContrib="19" flow="228.00" occupancy="51.87" speed="6.65" harmonicMeanSpeed="0.61" length="5.00" nVehEntered="21"/>
    <interval begin="300.00" end="600.00" id="TLS229_1_InductLoopOn_229357869#5_1" nVehContrib="15" flow="180.00" occupancy="44.44" speed="4.89" harmonicMeanSpeed="0.56" length="5.00" nVehEntered="14"/>
    <interval begin="300.00" end="600.00" id="TLS229_1_InductLoopOn_229357869#5_2" nVehContrib="16" flow="192.00" occupancy="44.29" speed="5.59" harmonicMeanSpeed="0.50" length="5.00" nVehEntered="18"/>
    <interval begin="300.00" end="600.00" id="TLS229_1_InductLoopOn_229357869#5_3" nVehContrib="17" flow="204.00" occupancy="38.01" speed="5.17" harmonicMeanSpeed="0.64" length="5.00" nVehEntered="16"/>
    <interval begin="300.00" end="600.00" id="TLS229_1_InductLoopOn_978613913#0_0" nVehContrib="38" flow="456.00" occupancy="7.78" speed="13.56" harmonicMeanSpeed="8.15" length="5.00" nVehEntered="38"/>
    <interval begin="300.00" end="600.00" id="TLS229_1_InductLoopOn_978613913#0_1" nVehContrib="56" flow="672.00" occupancy="14.83" speed="12.73" harmonicMeanSpeed="6.64" length="5.00" nVehEntered="57"/>
    <interval begin="300.00" end="600.00" id="TLS229_1_InductLoopOn_978613913#0_2" nVehContrib="68" flow="816.00" occupancy="20.43" speed="12.59" harmonicMeanSpeed="5.55" length="5.00" nVehEntered="68"/>
    <interval begin="300.00" end="600.00" id="TLS229_1_InductLoopOn_978613913#0_3" nVehContrib="1" flow="12.00" occupancy="0.15" speed="11.41" harmonicMeanSpeed="11.41" length="5.00" nVehEntered="1"/>
    <interval begin="300.00" end="600.00" id="TLS229_1_InductLoopOn_978613913#0_4" nVehContrib="0" flow="0.00" occupancy="0.00" speed="-1.00" harmonicMeanSpeed="-1.00" length="-1.00" nVehEntered="0"/>
    <interval begin="300.00" end="600.00" id="TLS229_1_InductLoopOn_gneE41_1" nVehContrib="20" flow="240.00" occupancy="6.16" speed="10.19" harmonicMeanSpeed="5.41" length="5.00" nVehEntered="20"/>
    <interval begin="300.00" end="600.00" id="TLS229_1_InductLoopOn_gneE41_2" nVehContrib="14" flow="168.00" occupancy="41.07" speed="6.40" harmonicMeanSpeed="0.57" length="5.00" nVehEntered="15"/>
    <interval begin="300.00" end="600.00" id="TLS229_1_InductLoopOn_gneE41_3" nVehContrib="11" flow="132.00" occupancy="18.83" speed="6.59" harmonicMeanSpeed="0.99" length="5.00" nVehEntered="13"/>
    <interval begin="300.00" end="600.00" id="TLS229_1_InductLoopOn_gneE41_4" nVehContrib="6" flow="72.00" occupancy="8.16" speed="5.88" harmonicMeanSpeed="1.23" length="5.00" nVehEntered="6"/>
    <interval begin="300.00" end="600.00" id="TLS229_1_InductLoopOn_gneE41_5" nVehContrib="10" flow="120.00" occupancy="11.97" speed="9.11" harmonicMeanSpeed="1.41" length="5.00" nVehEntered="11"/>
    <interval begin="300.00" end="600.00" id="TLS229_1_InductLoopOn_gneE41_6" nVehContrib="5" flow="60.00" occupancy="9.50" speed="6.90" harmonicMeanSpeed="0.88" length="5.00" nVehEntered="5"/>
    <interval begin="300.00" end="600.00" id="TLS229_1_InductLoopOn_978613907#0_0" nVehContrib="0" flow="0.00" occupancy="0.00" speed="-1.00" harmonicMeanSpeed="-1.00" length="-1.00" nVehEntered="0"/>
    <interval begin="300.00" end="600.00" id="TLS229_1_InductLoopOn_978613907#0_1" nVehContrib="20" flow="240.00" occupancy="2.14" speed="16.85" harmonicMeanSpeed="15.65" length="5.00" nVehEntered="21"/>
    <interval begin="300.00" end="600.00" id="TLS229_1_InductLoopOn_978613907#0_2" nVehContrib="37" flow="444.00" occupancy="6.92" speed="13.71" harmonicMeanSpeed="8.92" length="5.00" nVehEntered="37"/>